<VTKFile type="UnstructuredGrid" version="1.0" byte_order="LittleEndian" header_type="UInt64">
  <UnstructuredGrid>
    <Piece NumberOfPoints="24021" NumberOfCells="23550">
      <PointData Scalars="electrostatic_potential">
        <DataArray type="Float64" Name="electrostatic_potential" format="ascii" RangeMin="0" RangeMax="1">
          1 0 0 0 1 1
          0.977594256401062 0.9553177952766418 0.9331676363945007 0.9111420512199402 0.8892379999160767 0.8674538731575012
          0.8457868099212646 0.8242352604866028 0.802796483039856 0.78146892786026 0.7602500319480896 0.7391383647918701
          0.7181313633918762 0.6972277760505676 0.676425039768219 0.6557220220565796 0.6351163387298584 0.6146067380905151
          0.5941910147666931 0.5738679766654968 0.5536354780197144 0.5334924459457397 0.5134369730949402 0.4934673011302948
          0.47358211874961853 0.45377999544143677 0.43405941128730774 0.4144195318222046 0.39485782384872437 0.3753734529018402
          0.3559650182723999 0.33663180470466614 0.3173713982105255 0.29818299412727356 0.27906540036201477 0.26001787185668945
          0.24103811383247375 0.22212547063827515 0.2032787799835205 0.1844974011182785 0.16577912867069244 0.14712336659431458
          0.12852899730205536 0.10999549925327301 0.09152071923017502 0.07310415059328079 0.054744742810726166 0.036442019045352936
          0.01819392666220665 0 0 0 0 0
          0 0 0 0 0 0
          0 0 0 0 0 0
          0 0 0 0 0 0
          0 0 0 0 0 0
          0 0 0 0 0 0
          0 0 0 0 0 0
          0 0 0 0 0 0
          0 0 0 0 0 0
          0 0 0 0 0 0
          0 0 0 0 0 0
          0 0 0 0 0 0
          0 0 0 0 0 0
          0 0 0 0 0 0
          0 0 0 0 0 0
          0 0 0 0 0 0
          0 0 0 0 0 0
          0 0 0 0 0 0
          0 0 0 0 0 0
          0 0 0 0 0 0
          0 0 0 0 0 0
          0 0 0 0 0 0
          0 0 0 0 0 0
          0 0 0 0 0 0
          0 0 0 0 0 0
          0 0 0 0 0 0
          0 0 0 0 0 0
          0 0 0 0 0 0
          0 0 0 0 0 0
          0 0 0 0 0 0
          0 0 0 0 0 0
          0 0 0 0 0 0
          0 0 0 0 0 0
          0 0 0 0 0 0
          0 0 0 0 0 0
          0 0 0 0 0 0
          0 0 0 0 0 0
          0 0 0 0 0 0
          0 0 0 0 0 0
          0 0.011332842521369457 0.022862710058689117 0.034594956785440445 0.04653516784310341 0.05868913233280182
          0.07106287032365799 0.08366262912750244 0.09649491310119629 0.10956649482250214 0.12288440018892288 0.13645589351654053
          0.15028873085975647 0.16439081728458405 0.17877042293548584 0.19343622028827667 0.20839720964431763 0.2236628383398056
          0.23924295604228973 0.2551478445529938 0.27138829231262207 0.287975549697876 0.30492135882377625 0.3222382664680481
          0.3399391174316406 0.3580375909805298 0.37654799222946167 0.3954852819442749 0.41486528515815735 0.4347046911716461
          0.4550209641456604 0.4758325219154358 0.4971589744091034 0.5190207958221436 0.5414398312568665 0.5644389986991882
          0.588042676448822 0.6122767925262451 0.6371685862541199 0.6627473831176758 0.6890439391136169 0.7160913944244385
          0.7439247369766235 0.7725816369056702 0.8021022081375122 0.8325293064117432 0.8639090061187744 0.89629065990448
          0.9297274351119995 0.9642766118049622 1 1 1 1
          1 1 1 1 1 1
          1 1 1 1 1 1
          1 1 1 1 1 1
          1 1 1 1 1 1
          1 1 1 1 1 1
          1 1 1 1 1 1
          1 1 1 1 1 1
          1 1 1 1 1 1
          1 1 1 1 1 1
          1 1 1 1 1 1
          1 1 1 1 1 1
          1 1 1 1 1 1
          1 1 1 1 1 1
          1 1 1 1 1 1
          1 1 1 1 1 1
          1 1 1 1 1 1
          1 1 1 1 1 1
          1 1 1 1 1 1
          1 1 1 1 1 1
          1 1 1 1 1 1
          1 1 1 1 1 1
          1 1 1 1 1 1
          1 1 1 1 1 1
          1 1 1 1 1 1
          1 1 1 1 1 1
          1 1 1 1 1 1
          1 1 1 1 1 1
          1 1 1 1 1 1
          1 1 1 1 1 1
          1 1 1 1 1 1
          1 1 1 1 1 1
          1 1 1 1 1 1
          1 1 1 1 1 1
          1 1 1 1 1 1
          1 1 1 1 1 1
          1 1 1 1 1 1
          1 1 1 1 1 1
          1 1 1 1 1 1
          1 1 1 1 1 1
          1 1 1 1 1 1
          1 1 1 1 1 1
          1 1 1 1 1 1
          1 1 1 1 1 1
          1 1 1 1 1 1
          1 1 1 1 1 1
          1 1 1 1 1 1
          1 1 1 1 1 1
          1 1 1 1 1 1
          1 1 1 1 1 1
          1 1 1 1 1 1
          1 1 1 1 1 1
          1 1 1 1 1 1
          1 1 1 1 1 1
          1 1 1 1 1 1
          1 1 1 1 1 1
          1 1 1 1 1 1
          1 1 1 1 1 1
          1 1 1 1 1 1
          1 1 1 1 1 1
          1 1 1 1 1 1
          1 1 1 1 1 1
          1 1 1 1 1 1
          1 1 1 1 1 1
          1 1 1 1 1 1
          1 1 1 1 1 1
          1 1 1 1 1 1
          1 1 1 1 1 1
          1 1 1 1 1 1
          1 1 1 1 1 1
          1 1 1 1 1 1
          1 1 1 1 1 1
          1 1 1 1 1 1
          1 1 1 1 1 1
          1 1 1 1 1 1
          1 1 1 1 1 1
          1 1 1 1 1 1
          1 1 1 1 1 1
          1 1 0 0 0 0
          0 0 0 0 0 0
          0 0 0 0 0 0
          0 0 0 0 0 0
          0 0 0 0 0 0
          0 0 0 0 0 0
          0 0 0 0 0 0
          0 0 0 0 0 0
          0 0 0 0 0 0
          0 0 0 0 0 0
          0 0 0 0 0 0
          0 0 0 0 0 0
          0 0 0 0 0 0
          0 0 0 0 0 0
          0 0 0 0 0 0
          0 0 0 0 0 0
          0 0 0 0 0 0
          0 0 0 0 0 0
          0 0 0 0 0 0
          0 0 0 0 0 0
          0 0 0 0 0 0
          0 0 0 0 0 0
          0 0 0 0 0 0
          0 0 0 0 0 0
          0 0 0 0 0 0
          0 0 0 0 0 0
          0 0 0 0 0 0
          0 0 0 0 0 0
          0 0 0 0 0 0
          0 0 0 0 0 0
          0 0 0 0 0 0
          0 0 0 0 0 0
          0 0 0 0 0 0
          0 0 0 0 0 0
          0 0 0 0 0 0
          0 0 0 0 0 0
          0 0 0 0 0 0
          0 0 0 0 0 0
          0 0 0 0 0 0
          0 0 0.9775920510292053 0.9553134441375732 0.9331613779067993 0.9111335873603821
          0.889227569103241 0.8674414157867432 0.8457728624343872 0.8242194056510925 0.8027790784835815 0.7814497351646423
          0.7602294683456421 0.7391160726547241 0.718108057975769 0.6972030401229858 0.676399290561676 0.6556950211524963
          0.6350884437561035 0.6145778298377991 0.5941615700721741 0.573837399482727 0.5536045432090759 0.5334609746932983
          0.5134047865867615 0.4934350848197937 0.4735496938228607 0.45374760031700134 0.4340270161628723 0.41438695788383484
          0.3948257267475128 0.37534165382385254 0.3559339642524719 0.33660072088241577 0.31734123826026917 0.29815390706062317
          0.2790371775627136 0.259990394115448 0.24101178348064423 0.2221004068851471 0.2032550871372223 0.18447493016719818
          0.16575855016708374 0.14710453152656555 0.12851232290267944 0.10998030006885529 0.0915079265832901 0.07309389114379883
          0.054736874997615814 0.036436405032873154 0.018190937116742134 0.9775853753089905 0.9553003907203674 0.9331420660018921
          0.9111082553863525 0.8891965746879578 0.8674048781394958 0.845730721950531 0.8241720199584961 0.8027266263961792
          0.7813925743103027 0.7601677775382996 0.7390502095222473 0.7180380821228027 0.6971292495727539 0.6763219833374023
          0.6556144952774048 0.6350048780441284 0.6144917011260986 0.5940728187561035 0.5737467408180237 0.553511917591095
          0.5333665013313293 0.5133094787597656 0.4933386743068695 0.473452627658844 0.45365017652511597 0.43393000960350037
          0.41429010033607483 0.39472922682762146 0.3752462565898895 0.3558395802974701 0.33650854229927063 0.3172507584095001
          0.2980654537677765 0.2789517045021057 0.25990796089172363 0.24093298614025116 0.22202537953853607 0.20318418741226196
          0.1844085305929184 0.16569702327251434 0.14704826474189758 0.12846168875694275 0.1099356859922409 0.09146974235773087
          0.07306250929832458 0.05471272021532059 0.03641961142420769 0.01818244904279709 0.9775745868682861 0.9552789330482483
          0.933110237121582 0.911066472530365 0.8891448378562927 0.8673436045646667 0.8456605076789856 0.8240931034088135
          0.8026395440101624 0.781297504901886 0.7600653171539307 0.7389405965805054 0.7179215550422668 0.6970064043998718
          0.6761935949325562 0.6554804444313049 0.6348658800125122 0.6143481731414795 0.5939252376556396 0.5735957622528076
          0.5533577799797058 0.533210039138794 0.513150691986084 0.4931780993938446 0.47329139709472656 0.4534882605075836
          0.4337679445743561 0.41412854194641113 0.3945690095424652 0.3750876486301422 0.35568341612815857 0.33635467290878296
          0.3171001970767975 0.29791921377182007 0.2788097560405731 0.25977107882499695 0.24080149829387665 0.22190041840076447
          0.20306634902954102 0.18429791927337646 0.16559451818466187 0.1469545066356659 0.12837757170200348 0.10986160486936569
          0.09140633791685104 0.07301018387079239 0.05467238649725914 0.03639248386025429 0.018168414011597633 0.9775594472885132
          0.9552487134933472 0.93306565284729 0.9110077023506165 0.8890727758407593 0.8672584891319275 0.8455625772476196
          0.8239831924438477 0.802517831325531 0.781164824962616 0.7599219083786011 0.7387873530387878 0.7177589535713196
          0.6968351602554321 0.6760137677192688 0.6552934050559998 0.6346718668937683 0.6141478419303894 0.5937192440032959
          0.5733849406242371 0.5531425476074219 0.532991349697113 0.5129289031028748 0.4929545819759369 0.47306597232818604
          0.4532625079154968 0.4335419833660126 0.41390350461006165 0.39434531331062317 0.3748663663864136 0.35546502470970154
          0.3361402750015259 0.31689053773880005 0.2977149784564972 0.2786116600036621 0.2595798969268799 0.240618497133255
          0.22172601521015167 0.20290155708789825 0.18414370715618134 0.16545164585113525 0.14682407677173615 0.12826000154018402
          0.10975801944732666 0.09131763875484467 0.07293755561113358 0.0546167753636837 0.03635401651263237 0.01814909838140011
          0.9775399565696716 0.9552100300788879 0.9330082535743713 0.9109325408935547 0.8889800310134888 0.8671489357948303
          0.8454369306564331 0.8238418102264404 0.8023617267608643 0.7809945344924927 0.7597380876541138 0.7385907769203186
          0.71755051612854 0.6966152787208557 0.675783634185791 0.6550536751747131 0.6344231367111206 0.613891065120697
          0.5934555530548096 0.5731144547462463 0.55286705493927 0.5327110886573792 0.5126450657844543 0.4926678240299225
          0.47277766466140747 0.452972948551178 0.43325263261795044 0.41361525654792786 0.39405885338783264 0.37458285689353943
          0.35518571734428406 0.33586564660072327 0.31662213802337646 0.2974534332752228 0.27835813164711 0.2593357264995575
          0.24038448929786682 0.22150321304798126 0.20269106328487396 0.18394649028778076 0.16526906192302704 0.14665715396404266
          0.1281096637248993 0.10962586849927902 0.0912046805024147 0.07284455746412277 0.05454517900943756 0.03630528226494789
          0.018123846501111984 0.9775159358978271 0.9551629424095154 0.9329386949539185 0.9108406901359558 0.8888670802116394
          0.867015540599823 0.8452838063240051 0.8236699104309082 0.8021715879440308 0.7807871103286743 0.7595142722129822
          0.7383517622947693 0.7172967195510864 0.6963478326797485 0.6755034327507019 0.6547614932060242 0.634120762348175
          0.6135787963867188 0.593134343624115 0.5727858543395996 0.5525314807891846 0.5323703289031982 0.5122998952865601
          0.49231913685798645 0.47242674231529236 0.4526209831237793 0.4329010248184204 0.41326460242271423 0.39371079206466675
          0.37423840165138245 0.3548458218574524 0.33553236722946167 0.316295862197876 0.2971355617046356 0.27805033326148987
          0.2590387463569641 0.24010013043880463 0.2212325483560562 0.20243525505065918 0.18370725214481354 0.16504722833633423
          0.1464546173810959 0.12792754173278809 0.10946536809206009 0.09106720983982086 0.07273180782794952 0.054458700120449066
          0.03624610975384712 0.01809348165988922 0.9774878621101379 0.9551073312759399 0.9328564405441284 0.9107328653335571
          0.8887341618537903 0.8668584823608398 0.8451034426689148 0.8234674334526062 0.801947832107544 0.7805432677268982
          0.7592512369155884 0.738070011138916 0.7169982194900513 0.6960332989692688 0.6751738786697388 0.6544183492660522
          0.6337646245956421 0.6132115721702576 0.5927569270133972 0.5723993182182312 0.5521376132965088 0.5319695472717285
          0.5118939280509949 0.4919096529483795 0.4720146059989929 0.4522079527378082 0.43248772621154785 0.41285285353660583
          0.3933022618293762 0.3738340437412262 0.35444721579551697 0.33514079451560974 0.3159129321575165 0.29676270484924316
          0.2776890993118286 0.25869056582450867 0.2397664189338684 0.22091493010520935 0.20213526487350464 0.183426633477211
          0.16478736698627472 0.14621669054031372 0.12771384418010712 0.10927724838256836 0.09090644866228104 0.07259988784790039
          0.054356884211301804 0.036176763474941254 0.018058011308312416 0.9774555563926697 0.9550434947013855 0.932762086391449
          0.9106088876724243 0.888581395149231 0.86667799949646 0.8448965549468994 0.8232347965240479 0.8016909956932068
          0.7802629470825195 0.7589490413665771 0.7377470135688782 0.7166551947593689 0.6956722140312195 0.6747957468032837
          0.6540245413780212 0.6333564519882202 0.6127902865409851 0.5923240780830383 0.571956217288971 0.5516857504844666
          0.5315102338790894 0.5114290714263916 0.49144014716148376 0.47154247760772705 0.4517342746257782 0.43201419711112976
          0.41238147020339966 0.3928339183330536 0.37337106466293335 0.353990763425827 0.33469268679618835 0.31547465920448303
          0.29633596539497375 0.27727580070495605 0.25829219818115234 0.23938481509685516 0.22055171430110931 0.2017926126718521
          0.18310558795928955 0.16449014842510223 0.14594526588916779 0.12746946513652802 0.10906243324279785 0.09072235971689224
          0.07244909554719925 0.054240867495536804 0.03609725087881088 0.018017377704381943 0.9774189591407776 0.9549716114997864
          0.9326557517051697 0.9104686975479126 0.8884091973304749 0.8664745688438416 0.844663143157959 0.8229727745056152
          0.8014011383056641 0.7799471616744995 0.7586084008216858 0.7373828291893005 0.7162693738937378 0.6952653527259827
          0.6743699312210083 0.6535810232162476 0.6328967809677124 0.6123160123825073 0.5918369293212891 0.5714576840400696
          0.5511772632598877 0.5309939384460449 0.5109058618545532 0.49091240763664246 0.47101128101348877 0.451201856136322
          0.4314825236797333 0.4118514657020569 0.3923080861568451 0.37285077571868896 0.3534781038761139 0.33418920636177063
          0.31498241424560547 0.29585719108581543 0.2768118679523468 0.2578451335430145 0.23895643651485443 0.22014449536800385
          0.20140768587589264 0.18274566531181335 0.16415689885616302 0.14564071595668793 0.12719593942165375 0.10882128775119781
          0.09051647037267685 0.07228001952171326 0.054110828787088394 0.03600864112377167 0.017971772700548172 0.9773783087730408
          0.9548913836479187 0.9325369596481323 0.9103133678436279 0.8882178664207458 0.866248607635498 0.8444036841392517
          0.8226812481880188 0.8010797500610352 0.7795965075492859 0.7582300901412964 0.7369787096977234 0.7158404588699341
          0.6948142051696777 0.6738975048065186 0.6530889272689819 0.6323869824409485 0.6117902994155884 0.5912966132164001
          0.5709049105644226 0.5506135821342468 0.5304211378097534 0.5103265047073364 0.4903275668621063 0.47042316198349
          0.4506121575832367 0.43089309334754944 0.41126498579978943 0.39172589778900146 0.37227490544319153 0.3529106080532074
          0.33363208174705505 0.3144382834434509 0.29532742500305176 0.2762986719608307 0.257350891828537 0.2384829968214035
          0.21969406306743622 0.20098264515399933 0.18234789371490479 0.1637887954711914 0.14530430734157562 0.12689374387264252
          0.10855544358491898 0.09028894454240799 0.07209322601556778 0.05396762862801552 0.03591069579124451 0.017921805381774902
          0.9773339033126831 0.9548035264015198 0.9324068427085876 0.9101424217224121 0.8880072832107544 0.8660004138946533
          0.8441189527511597 0.8223615288734436 0.8007264733314514 0.7792114615440369 0.7578151226043701 0.7365353107452393
          0.7153706550598145 0.6943191289901733 0.6733791828155518 0.6525495052337646 0.6318281292915344 0.6112138032913208
          0.5907045602798462 0.5702990889549255 0.5499963760375977 0.5297940969467163 0.5096917748451233 0.48968711495399475
          0.46977925300598145 0.44996699690818787 0.43024858832359314 0.410623162984848 0.3910890519618988 0.37164536118507385
          0.352290540933609 0.33302342891693115 0.31384339928627014 0.2947484850883484 0.27573835849761963 0.25681108236312866
          0.23796610534191132 0.2192024290561676 0.2005186229944229 0.18191403150558472 0.16338716447353363 0.14493773877620697
          0.12656395137310028 0.10826536267995834 0.09004112333059311 0.07188992947340012 0.05381125584244728 0.03580383583903313
          0.017866872251033783 0.9772851467132568 0.9547077417373657 0.9322653412818909 0.9099563956260681 0.8877784609794617
          0.8657302856445312 0.8438091278076172 0.8220140933990479 0.8003424406051636 0.7787932753562927 0.7573639154434204
          0.7360535860061646 0.7148598432540894 0.6937815546989441 0.6728166341781616 0.6519636511802673 0.6312215924263
          0.6105881333351135 0.5900623202323914 0.569642186164856 0.5493268370628357 0.529114305973053 0.5090036392211914
          0.4889931380748749 0.46908190846443176 0.4492678642272949 0.4295506477355957 0.4099280536174774 0.3903997540473938
          0.3709637224674225 0.35161933302879333 0.3323649764060974 0.313199907541275 0.294122576713562 0.27513226866722107
          0.2562275230884552 0.23740774393081665 0.21867117285728455 0.20001758635044098 0.1814451813697815 0.16295374929904938
          0.1445416361093521 0.1262083500623703 0.10795257985591888 0.08977378159761429 0.07167068123817444 0.05364275723695755
          0.03568878024816513 0.01780836284160614 0.9772328734397888 0.9546039700508118 0.9321123957633972 0.909755527973175
          0.8875313997268677 0.8654385805130005 0.8434751629829407 0.8216387033462524 0.7999284863471985 0.778342068195343
          0.7568777203559875 0.7355341911315918 0.7143097519874573 0.6932021379470825 0.6722107529640198 0.6513334512710571
          0.6305686235427856 0.6099151372909546 0.5893714427947998 0.5689355731010437 0.5486069321632385 0.5283836126327515
          0.5082641243934631 0.4882475435733795 0.4683324694633484 0.44851717352867126 0.42880091071128845 0.4091823101043701
          0.3896596431732178 0.37023255228996277 0.3508993089199066 0.33165866136550903 0.3125098645687103 0.2934514284133911
          0.2744826674461365 0.2556023597717285 0.23680900037288666 0.2181023210287094 0.1994808167219162 0.18094341456890106
          0.16248948872089386 0.14411801099777222 0.12582753598690033 0.10761794447898865 0.08948782086372375 0.07143618911504745
          0.05346256494522095 0.035565998405218124 0.017745157703757286 0.9771763682365417 0.9544931054115295 0.9319486021995544
          0.9095404148101807 0.8872668147087097 0.865126371383667 0.8431171178817749 0.8212372064590454 0.7994851469993591
          0.7778593301773071 0.756357729434967 0.7349789142608643 0.7137210965156555 0.6925830245018005 0.6715629696846008
          0.6506596803665161 0.6298711895942688 0.609196126461029 0.5886332988739014 0.5681811571121216 0.5478382110595703
          0.5276033282279968 0.5074751973152161 0.4874521493911743 0.46753305196762085 0.4477165937423706 0.42800164222717285
          0.40838682651519775 0.388871431350708 0.3694535791873932 0.3501322865486145 0.33090659976005554 0.31177523732185364
          0.29273730516433716 0.2737915813922882 0.2549372613430023 0.2361728549003601 0.2174975872039795 0.19891032576560974
          0.18041031062602997 0.16199636459350586 0.1436677724123001 0.12542375922203064 0.1072627529501915 0.08918435126543045
          0.07118748873472214 0.05327149108052254 0.035435426980257034 0.017678657546639442 0.9771164059638977 0.9543748497962952
          0.9317735433578491 0.9093108177185059 0.8869850635528564 0.8647938966751099 0.842736005783081 0.8208098411560059
          0.7990134954452515 0.7773457765579224 0.7558044195175171 0.7343882322311401 0.713095486164093 0.6919247508049011
          0.6708748936653137 0.6499437689781189 0.6291301250457764 0.6084325909614563 0.5878497362136841 0.5673804879188538
          0.5470229983329773 0.5267760157585144 0.5066382884979248 0.4866085946559906 0.4666860103607178 0.4468684494495392
          0.42715513706207275 0.4075448513031006 0.3880368173122406 0.3686290383338928 0.34932079911231995 0.33011096715927124
          0.3109985291957855 0.2919825315475464 0.2730613946914673 0.25423434376716614 0.2355005294084549 0.21685868501663208
          0.19830824434757233 0.17984765768051147 0.1614762395620346 0.14319318532943726 0.12499738484621048 0.10688832402229309
          0.0888645350933075 0.07092554867267609 0.05307032912969589 0.035298142582178116 0.017608458176255226 0.9770526885986328
          0.9542495012283325 0.9315884709358215 0.9090678691864014 0.8866861462593079 0.8644416332244873 0.8423326015472412
          0.8203573226928711 0.7985143661499023 0.7768021821975708 0.7552191019058228 0.7337635159492493 0.7124341130256653
          0.6912292242050171 0.6701475381851196 0.6491873264312744 0.6283475160598755 0.6076264977455139 0.5870228409767151
          0.5665353536605835 0.5461626052856445 0.5259032845497131 0.5057560205459595 0.48572003841400146 0.46579331159591675
          0.4459749758243561 0.426263689994812 0.40665850043296814 0.3871581256389618 0.36776140332221985 0.3484671115875244
          0.32927435636520386 0.31018194556236267 0.29118871688842773 0.2722937762737274 0.25349605083465576 0.2347945272922516
          0.21618808805942535 0.19767595827579498 0.1792570799589157 0.1609305441379547 0.1426953226327896 0.12455068528652191
          0.1064956784248352 0.08852940797805786 0.07065095007419586 0.052859652787446976 0.03515460714697838 0.017534920945763588
          0.9769853353500366 0.9541170597076416 0.9313929677009583 0.9088115692138672 0.8863713145256042 0.8640704154968262
          0.8419075012207031 0.8198804259300232 0.7979885935783386 0.7762299180030823 0.7546029686927795 0.7331063151359558
          0.7117383480072021 0.6904975175857544 0.6693826913833618 0.6483924984931946 0.627525269985199 0.6067798137664795
          0.586154580116272 0.565648078918457 0.5452596545219421 0.524987518787384 0.5048306584358215 0.48478758335113525
          0.46485722064971924 0.44503819942474365 0.4253291189670563 0.4057295024394989 0.3862377405166626 0.3668528199195862
          0.34757351875305176 0.32839885354042053 0.30932730436325073 0.29035863280296326 0.27149125933647156 0.252724289894104
          0.23405680060386658 0.21548762917518616 0.19701600074768066 0.1786404848098755 0.1603609323501587 0.14217594265937805
          0.12408473342657089 0.10608649253845215 0.08818019181489944 0.07036487013101578 0.05264010652899742 0.03500496596097946
          0.017458470538258553 0.9769147038459778 0.9539779424667358 0.9311876893043518 0.9085423350334167 0.8860405683517456
          0.8636806607246399 0.8414611220359802 0.8193802237510681 0.7974370718002319 0.7756298184394836 0.7539570927619934
          0.7324174642562866 0.7110093832015991 0.6897314190864563 0.668582022190094 0.6475603580474854 0.6266646385192871
          0.6058937907218933 0.5852462649345398 0.5647207498550415 0.5443161129951477 0.5240306854248047 0.5038637518882751
          0.48381397128105164 0.4638799726963043 0.4440605342388153 0.4243546426296234 0.40476104617118835 0.38527849316596985
          0.3659057915210724 0.34664231538772583 0.32748663425445557 0.3084377944469452 0.28949472308158875 0.2706562876701355
          0.2519216239452362 0.23328937590122223 0.21475909650325775 0.19632966816425323 0.1780000925064087 0.1597694307565689
          0.1416366994380951 0.12360116839408875 0.10566160082817078 0.08781761676073074 0.07006827741861343 0.05241265520453453
          0.034849863499403 0.017379265278577805 0.9768409729003906 0.9538326859474182 0.9309728741645813 0.9082605838775635
          0.8856943845748901 0.8632730841636658 0.8409944772720337 0.8188574910163879 0.7968611121177673 0.7750032544136047
          0.7532827258110046 0.7316981554031372 0.710248589515686 0.6889318823814392 0.6677470803260803 0.6466931104660034
          0.6257679462432861 0.6049706935882568 0.5843000411987305 0.5637550354003906 0.5433335900306702 0.5230350494384766
          0.5028583407402039 0.4828016757965088 0.46286413073539734 0.4430447518825531 0.4233419597148895 0.4037548005580902
          0.3842821419239044 0.36492323875427246 0.3456762433052063 0.3265405595302582 0.30751538276672363 0.28859904408454895
          0.26979076862335205 0.2510896623134613 0.2324949949979782 0.21400518715381622 0.195619598031044 0.17733746767044067
          0.15915749967098236 0.14107896387577057 0.12310098111629486 0.10522297024726868 0.08744342625141144 0.06976194679737091
          0.052177924662828445 0.03468998149037361 0.017297541722655296 0.9767637252807617 0.9536806344985962 0.9307486414909363
          0.9079667925834656 0.8853339552879333 0.8628481030464172 0.840508222579956 0.8183131814002991 0.7962610125541687
          0.7743507027626038 0.7525811195373535 0.7309503555297852 0.7094573974609375 0.688101053237915 0.6668794751167297
          0.6457917094230652 0.6248366832733154 0.6040125489234924 0.583318293094635 0.5627530217170715 0.5423147678375244
          0.5220027565956116 0.5018159747123718 0.4817526340484619 0.4618118405342102 0.4419928789138794 0.4222937226295471
          0.40271368622779846 0.38325196504592896 0.3639068007469177 0.3446774482727051 0.32556313276290894 0.3065621852874756
          0.2876738905906677 0.26889750361442566 0.25023144483566284 0.23167502880096436 0.21322757005691528 0.19488759338855743
          0.17665430903434753 0.1585271805524826 0.14050468802452087 0.12258625775575638 0.10477129369974136 0.08705835789442062
          0.06944690644741058 0.05193638801574707 0.03452541306614876 0.01721346192061901 0.976683497428894 0.9535223841667175
          0.9305154085159302 0.9076617360115051 0.8849592208862305 0.862406849861145 0.840003490447998 0.8177477717399597
          0.7956383228302002 0.7736742496490479 0.7518534660339355 0.7301750183105469 0.7086374759674072 0.6872398257255554
          0.6659809350967407 0.6448588371276855 0.6238726377487183 0.6030210256576538 0.5823028087615967 0.5617170929908752
          0.5412617921829224 0.5209362506866455 0.5007392168045044 0.48066943883895874 0.4607257843017578 0.44090738892555237
          0.42121249437332153 0.4016402065753937 0.38218954205513 0.3628593683242798 0.34364888072013855 0.3245563805103302
          0.30558112263679504 0.2867221236228943 0.267978310585022 0.24934892356395721 0.2308325171470642 0.21242834627628326
          0.19413545727729797 0.17595291137695312 0.1578797549009323 0.13991540670394897 0.12205827981233597 0.10430795699357986
          0.08666349202394485 0.0691240206360817 0.051689013838768005 0.03435705974698067 0.01712764799594879 0.976600170135498
          0.9533584117889404 0.9302738308906555 0.9073449373245239 0.8845706582069397 0.8619496822357178 0.8394808173179626
          0.8171626925468445 0.7949942350387573 0.7729739546775818 0.7511007785797119 0.7293732762336731 0.707790195941925
          0.6863508224487305 0.6650528907775879 0.6438957452774048 0.6228779554367065 0.6019984483718872 0.5812557935714722
          0.5606489777565002 0.5401765704154968 0.519837498664856 0.49963054060935974 0.47955456376075745 0.459608256816864
          0.43979066610336304 0.42010048031806946 0.4005366861820221 0.38109806180000305 0.36178356409072876 0.34259217977523804
          0.323522686958313 0.30457422137260437 0.2857458293437958 0.2670360803604126 0.2484440952539444 0.22996903955936432
          0.21160976588726044 0.19336546957492828 0.17523504793643951 0.15721771121025085 0.13931240141391754 0.12151835113763809
          0.10383453220129013 0.08626019954681396 0.06879434734582901 0.05143621936440468 0.03418503701686859 0.01703985221683979
          0.9765138030052185 0.9531888961791992 0.9300238490104675 0.9070176482200623 0.8841692209243774 0.8614773154258728
          0.8389409184455872 0.8165589570999146 0.7943295836448669 0.7722519636154175 0.7503249049186707 0.7285471558570862
          0.706917405128479 0.6854344606399536 0.6640970706939697 0.6429039835929871 0.6218541860580444 0.6009464263916016
          0.5801790356636047 0.5595511198043823 0.539061427116394 0.5187087655067444 0.4984920620918274 0.4784099757671356
          0.4584614038467407 0.43864521384239197 0.4189605414867401 0.39940574765205383 0.37997984886169434 0.36068183183670044
          0.3415105938911438 0.32246506214141846 0.3035442531108856 0.2847469747066498 0.26607227325439453 0.2475190907716751
          0.2290867567062378 0.21077373623847961 0.1925792098045349 0.17450228333473206 0.15654201805591583 0.13869747519493103
          0.12096773087978363 0.10335195809602737 0.0858491063117981 0.0684586688876152 0.051179204136133194 0.0340101532638073
          0.016950741410255432 0.9764247536659241 0.9530139565467834 0.9297658801078796 0.9066802859306335 0.8837555050849915
          0.8609909415245056 0.8383848071098328 0.8159368634223938 0.7936449646949768 0.7715087532997131 0.749526858329773
          0.7276974320411682 0.7060201168060303 0.6844931244850159 0.6631157398223877 0.6418861150741577 0.6208037734031677
          0.5998667478561401 0.5790745615959167 0.5584254264831543 0.5379186272621155 0.5175526738166809 0.49732619524002075